R-methyloxirane - 1                                                     
Freq      RB3LYP                                                      6-31+G(d,p)         
Number of atoms                            I               10
Info1-9                                    I   N=           9
          12          10           0           0           0         100
           6          18        -502
Full Title                                 C   N=           2
R-methyloxirane - 1     
Route                                      C   N=           5
#P B3LYP/6-31+G(d,p) Geom=Check NoSymm Freq=(SaveNM,HPModes)
Charge                                     I                0
Multiplicity                               I                1
Number of electrons                        I               32
Number of alpha electrons                  I               16
Number of beta electrons                   I               16
Number of basis functions                  I              106
Number of independent functions            I              106
Number of point charges in /Mol/           I                0
Number of translation vectors              I                0
Atomic numbers                             I   N=          10
           8           6           6           6           1           1
           1           1           1           1
Nuclear charges                            R   N=          10
  8.00000000E+00  6.00000000E+00  6.00000000E+00  6.00000000E+00  1.00000000E+00
  1.00000000E+00  1.00000000E+00  1.00000000E+00  1.00000000E+00  1.00000000E+00
Current cartesian coordinates              R   N=          30
 -4.00796257E-03 -3.65704515E-03 -3.35959187E-03 -5.94741789E-04 -1.37551947E-03
  2.71600416E+00  2.38609954E+00 -3.01138948E-04  1.28982416E+00 -1.02212683E+00
  2.33040360E+00  3.99457429E+00 -6.11536375E-01 -1.79872901E+00  3.52544362E+00
  3.46124648E+00  1.74855165E+00  1.12303135E+00  3.48202247E+00 -1.73326024E+00
  1.10351578E+00 -3.08990558E+00  2.36351979E+00  3.90215588E+00 -4.69127330E-01
  2.36348834E+00  5.99080012E+00 -3.05616165E-01  4.04071926E+00  3.08029666E+00
Number of symbols in /Mol/                 I                0
Force Field                                I                0
Atom Types                                 C   N=          10
                                                            
                                                            
Int Atom Types                             I   N=          10
           0           0           0           0           0           0
           0           0           0           0
MM charges                                 R   N=          10
  0.00000000E+00  0.00000000E+00  0.00000000E+00  0.00000000E+00  0.00000000E+00
  0.00000000E+00  0.00000000E+00  0.00000000E+00  0.00000000E+00  0.00000000E+00
Integer atomic weights                     I   N=          10
          16          12          12          12           1           1
           1           1           1           1
Real atomic weights                        R   N=          10
  1.59949146E+01  1.20000000E+01  1.20000000E+01  1.20000000E+01  1.00782504E+00
  1.00782504E+00  1.00782504E+00  1.00782504E+00  1.00782504E+00  1.00782504E+00
Atom fragment info                         I   N=          10
           0           0           0           0           0           0
           0           0           0           0
Atom residue num                           I   N=          10
           0           0           0           0           0           0
           0           0           0           0
Nuclear spins                              I   N=          10
           0           0           0           0           1           1
           1           1           1           1
Nuclear ZEff                               R   N=          10
 -5.60000000E+00 -3.60000000E+00 -3.60000000E+00 -3.60000000E+00 -1.00000000E+00
 -1.00000000E+00 -1.00000000E+00 -1.00000000E+00 -1.00000000E+00 -1.00000000E+00
Nuclear ZNuc                               R   N=          10
  8.00000000E+00  6.00000000E+00  6.00000000E+00  6.00000000E+00  1.00000000E+00
  1.00000000E+00  1.00000000E+00  1.00000000E+00  1.00000000E+00  1.00000000E+00
Nuclear QMom                               R   N=          10
  0.00000000E+00  0.00000000E+00  0.00000000E+00  0.00000000E+00  0.00000000E+00
  0.00000000E+00  0.00000000E+00  0.00000000E+00  0.00000000E+00  0.00000000E+00
Nuclear GFac                               R   N=          10
  0.00000000E+00  0.00000000E+00  0.00000000E+00  0.00000000E+00  2.79284600E+00
  2.79284600E+00  2.79284600E+00  2.79284600E+00  2.79284600E+00  2.79284600E+00
MicOpt                                     I   N=          10
          -1          -1          -1          -1          -1          -1
          -1          -1          -1          -1
Number of residues                         I                0
Number of secondary structures             I                0
Redundant internal dimensions              I   N=           4
          39          10          16          13
Redundant internal coordinate indices      I   N=         156
           1           2           0           0           1           3
           0           0           2           3           0           0
           2           4           0           0           2           5
           0           0           3           6           0           0
           3           7           0           0           4           8
           0           0           4           9           0           0
           4          10           0           0           1           2
           4           0           1           2           5           0
           3           2           4           0           3           2
           5           0           4           2           5           0
           1           3           6           0           1           3
           7           0           2           3           6           0
           2           3           7           0           6           3
           7           0           2           4           8           0
           2           4           9           0           2           4
          10           0           8           4           9           0
           8           4          10           0           9           4
          10           0           4           2           3           6
           4           2           3           7           5           2
           3           6           5           2           3           7
           1           2           4           8           1           2
           4           9           1           2           4          10
           3           2           4           8           3           2
           4           9           3           2           4          10
           5           2           4           8           5           2
           4           9           5           2           4          10
Redundant internal coordinates             R   N=          39
  2.71936685E+00  2.71752633E+00  2.78034173E+00  2.84876522E+00  2.06371545E+00
  2.05967154E+00  2.05886015E+00  2.07010792E+00  2.07167097E+00  2.06747933E+00
  2.03650005E+00  1.97264631E+00  2.13852949E+00  2.04390334E+00  2.01604704E+00
  2.00602660E+00  2.00872168E+00  2.08284063E+00  2.09789099E+00  2.01473798E+00
  1.92969293E+00  1.92817892E+00  1.93303954E+00  1.88535480E+00  1.88935308E+00
  1.89694119E+00 -1.17052176E-02  2.67245430E+00 -2.70300446E+00 -1.88449421E-02
  1.32494207E+00 -2.87211445E+00 -7.69327218E-01  2.52859783E+00 -1.66845869E+00
  4.34328546E-01 -1.05668578E+00  1.02944300E+00  3.13223024E+00
ZRed-IntVec                                I   N=          39
           0           0           0           0           0           0
           0           0           0           0           0           0
           0           0           0           0           0           0
           0           0           0           0           0           0
           0           0           0           0           0           0
           0           0           0           0           0           0
           0           0           0
ZRed-FPVec                                 R   N=          39
  0.00000000E+00  0.00000000E+00  0.00000000E+00  0.00000000E+00  0.00000000E+00
  0.00000000E+00  0.00000000E+00  0.00000000E+00  0.00000000E+00  0.00000000E+00
  0.00000000E+00  0.00000000E+00  0.00000000E+00  0.00000000E+00  0.00000000E+00
  0.00000000E+00  0.00000000E+00  0.00000000E+00  0.00000000E+00  0.00000000E+00
  0.00000000E+00  0.00000000E+00  0.00000000E+00  0.00000000E+00  0.00000000E+00
  0.00000000E+00  0.00000000E+00  0.00000000E+00  0.00000000E+00  0.00000000E+00
  0.00000000E+00  0.00000000E+00  0.00000000E+00  0.00000000E+00  0.00000000E+00
  0.00000000E+00  0.00000000E+00  0.00000000E+00  0.00000000E+00
ZRed-Constraint1                           R   N=          39
  2.71936685E+00  2.71752633E+00  2.78034173E+00  2.84876522E+00  2.06371545E+00
  2.05967154E+00  2.05886015E+00  2.07010792E+00  2.07167097E+00  2.06747933E+00
  2.03650005E+00  1.97264631E+00  2.13852949E+00  2.04390334E+00  2.01604704E+00
  2.00602660E+00  2.00872168E+00  2.08284063E+00  2.09789099E+00  2.01473798E+00
  1.92969293E+00  1.92817892E+00  1.93303954E+00  1.88535480E+00  1.88935308E+00
  1.89694119E+00 -1.17052176E-02  2.67245430E+00 -2.70300446E+00 -1.88449421E-02
  1.32494207E+00 -2.87211445E+00 -7.69327218E-01  2.52859783E+00 -1.66845869E+00
  4.34328546E-01 -1.05668578E+00  1.02944300E+00  3.13223024E+00
ZRed-Constraint2                           R   N=          39
  2.70542937E+00  2.70276651E+00  2.76695469E+00  2.83834598E+00  2.05482956E+00
  2.05080099E+00  2.05006252E+00  2.06161292E+00  2.06282091E+00  2.05866959E+00
  2.03900950E+00  1.97380814E+00  2.13953655E+00  2.04239180E+00  2.01490721E+00
  2.00747436E+00  2.00955343E+00  2.08181408E+00  2.09684932E+00  2.01519929E+00
  1.92989276E+00  1.92725057E+00  1.93356462E+00  1.88410941E+00  1.89073096E+00
  1.89700981E+00 -1.18815718E-02  2.66846996E+00 -2.69874877E+00 -1.83972352E-02
  1.33118616E+00 -2.86788906E+00 -7.65283608E-01  2.53571506E+00 -1.66336016E+00
  4.39245295E-01 -1.05403616E+00  1.03007393E+00  3.13267939E+00
SymInf integers                            I   N=          26
           1           1           1           1           1           0
           0           0           0           0           0           0
           0           0           0           0           0           0
           0           0           0           0           0           0
           0           0
RotTr to input orientation                 R   N=          12
  5.40792583E-01 -4.90105731E-01 -6.83622524E-01  8.30987401E-01  1.85299346E-01
  5.24522728E-01 -1.30396788E-01 -8.51739705E-01  5.07480199E-01  3.31727739E-01
  6.53981097E-01  2.08439945E+00
Number of contracted shells                I               38
Number of primitive shells                 I               78
Pure/Cartesian d shells                    I                1
Pure/Cartesian f shells                    I                0
Highest angular momentum                   I                2
Largest degree of contraction              I                6
Shell types                                I   N=          38
           0          -1          -1          -1           2           0
          -1          -1          -1           2           0          -1
          -1          -1           2           0          -1          -1
          -1           2           0           0           1           0
           0           1           0           0           1           0
           0           1           0           0           1           0
           0           1
Number of primitives per shell             I   N=          38
           6           3           1           1           1           6
           3           1           1           1           6           3
           1           1           1           6           3           1
           1           1           3           1           1           3
           1           1           3           1           1           3
           1           1           3           1           1           3
           1           1
Shell to atom map                          I   N=          38
           1           1           1           1           1           2
           2           2           2           2           3           3
           3           3           3           4           4           4
           4           4           5           5           5           6
           6           6           7           7           7           8
           8           8           9           9           9          10
          10          10
Primitive exponents                        R   N=          78
  5.48467166E+03  8.25234946E+02  1.88046958E+02  5.29645000E+01  1.68975704E+01
  5.79963534E+00  1.55396162E+01  3.59993359E+00  1.01376175E+00  2.70005823E-01
  8.45000000E-02  8.00000000E-01  3.04752488E+03  4.57369518E+02  1.03948685E+02
  2.92101553E+01  9.28666296E+00  3.16392696E+00  7.86827235E+00  1.88128854E+00
  5.44249258E-01  1.68714478E-01  4.38000000E-02  8.00000000E-01  3.04752488E+03
  4.57369518E+02  1.03948685E+02  2.92101553E+01  9.28666296E+00  3.16392696E+00
  7.86827235E+00  1.88128854E+00  5.44249258E-01  1.68714478E-01  4.38000000E-02
  8.00000000E-01  3.04752488E+03  4.57369518E+02  1.03948685E+02  2.92101553E+01
  9.28666296E+00  3.16392696E+00  7.86827235E+00  1.88128854E+00  5.44249258E-01
  1.68714478E-01  4.38000000E-02  8.00000000E-01  1.87311370E+01  2.82539436E+00
  6.40121692E-01  1.61277759E-01  1.10000000E+00  1.87311370E+01  2.82539436E+00
  6.40121692E-01  1.61277759E-01  1.10000000E+00  1.87311370E+01  2.82539436E+00
  6.40121692E-01  1.61277759E-01  1.10000000E+00  1.87311370E+01  2.82539436E+00
  6.40121692E-01  1.61277759E-01  1.10000000E+00  1.87311370E+01  2.82539436E+00
  6.40121692E-01  1.61277759E-01  1.10000000E+00  1.87311370E+01  2.82539436E+00
  6.40121692E-01  1.61277759E-01  1.10000000E+00
Contraction coefficients                   R   N=          78
  1.83107443E-03  1.39501722E-02  6.84450781E-02  2.32714336E-01  4.70192898E-01
  3.58520853E-01 -1.10777550E-01 -1.48026263E-01  1.13076702E+00  1.00000000E+00
  1.00000000E+00  1.00000000E+00  1.83473713E-03  1.40373228E-02  6.88426223E-02
  2.32184443E-01  4.67941348E-01  3.62311985E-01 -1.19332420E-01 -1.60854152E-01
  1.14345644E+00  1.00000000E+00  1.00000000E+00  1.00000000E+00  1.83473713E-03
  1.40373228E-02  6.88426223E-02  2.32184443E-01  4.67941348E-01  3.62311985E-01
 -1.19332420E-01 -1.60854152E-01  1.14345644E+00  1.00000000E+00  1.00000000E+00
  1.00000000E+00  1.83473713E-03  1.40373228E-02  6.88426223E-02  2.32184443E-01
  4.67941348E-01  3.62311985E-01 -1.19332420E-01 -1.60854152E-01  1.14345644E+00
  1.00000000E+00  1.00000000E+00  1.00000000E+00  3.34946043E-02  2.34726953E-01
  8.13757326E-01  1.00000000E+00  1.00000000E+00  3.34946043E-02  2.34726953E-01
  8.13757326E-01  1.00000000E+00  1.00000000E+00  3.34946043E-02  2.34726953E-01
  8.13757326E-01  1.00000000E+00  1.00000000E+00  3.34946043E-02  2.34726953E-01
  8.13757326E-01  1.00000000E+00  1.00000000E+00  3.34946043E-02  2.34726953E-01
  8.13757326E-01  1.00000000E+00  1.00000000E+00  3.34946043E-02  2.34726953E-01
  8.13757326E-01  1.00000000E+00  1.00000000E+00
P(S=P) Contraction coefficients            R   N=          78
  0.00000000E+00  0.00000000E+00  0.00000000E+00  0.00000000E+00  0.00000000E+00
  0.00000000E+00  7.08742682E-02  3.39752839E-01  7.27158577E-01  1.00000000E+00
  1.00000000E+00  0.00000000E+00  0.00000000E+00  0.00000000E+00  0.00000000E+00
  0.00000000E+00  0.00000000E+00  0.00000000E+00  6.89990666E-02  3.16423961E-01
  7.44308291E-01  1.00000000E+00  1.00000000E+00  0.00000000E+00  0.00000000E+00
  0.00000000E+00  0.00000000E+00  0.00000000E+00  0.00000000E+00  0.00000000E+00
  6.89990666E-02  3.16423961E-01  7.44308291E-01  1.00000000E+00  1.00000000E+00
  0.00000000E+00  0.00000000E+00  0.00000000E+00  0.00000000E+00  0.00000000E+00
  0.00000000E+00  0.00000000E+00  6.89990666E-02  3.16423961E-01  7.44308291E-01
  1.00000000E+00  1.00000000E+00  0.00000000E+00  0.00000000E+00  0.00000000E+00
  0.00000000E+00  0.00000000E+00  0.00000000E+00  0.00000000E+00  0.00000000E+00
  0.00000000E+00  0.00000000E+00  0.00000000E+00  0.00000000E+00  0.00000000E+00
  0.00000000E+00  0.00000000E+00  0.00000000E+00  0.00000000E+00  0.00000000E+00
  0.00000000E+00  0.00000000E+00  0.00000000E+00  0.00000000E+00  0.00000000E+00
  0.00000000E+00  0.00000000E+00  0.00000000E+00  0.00000000E+00  0.00000000E+00
  0.00000000E+00  0.00000000E+00  0.00000000E+00
Coordinates of each shell                  R   N=         114
 -4.00796257E-03 -3.65704515E-03 -3.35959187E-03 -4.00796257E-03 -3.65704515E-03
 -3.35959187E-03 -4.00796257E-03 -3.65704515E-03 -3.35959187E-03 -4.00796257E-03
 -3.65704515E-03 -3.35959187E-03 -4.00796257E-03 -3.65704515E-03 -3.35959187E-03
 -5.94741789E-04 -1.37551947E-03  2.71600416E+00 -5.94741789E-04 -1.37551947E-03
  2.71600416E+00 -5.94741789E-04 -1.37551947E-03  2.71600416E+00 -5.94741789E-04
 -1.37551947E-03  2.71600416E+00 -5.94741789E-04 -1.37551947E-03  2.71600416E+00
  2.38609954E+00 -3.01138948E-04  1.28982416E+00  2.38609954E+00 -3.01138948E-04
  1.28982416E+00  2.38609954E+00 -3.01138948E-04  1.28982416E+00  2.38609954E+00
 -3.01138948E-04  1.28982416E+00  2.38609954E+00 -3.01138948E-04  1.28982416E+00
 -1.02212683E+00  2.33040360E+00  3.99457429E+00 -1.02212683E+00  2.33040360E+00
  3.99457429E+00 -1.02212683E+00  2.33040360E+00  3.99457429E+00 -1.02212683E+00
  2.33040360E+00  3.99457429E+00 -1.02212683E+00  2.33040360E+00  3.99457429E+00
 -6.11536375E-01 -1.79872901E+00  3.52544362E+00 -6.11536375E-01 -1.79872901E+00
  3.52544362E+00 -6.11536375E-01 -1.79872901E+00  3.52544362E+00  3.46124648E+00
  1.74855165E+00  1.12303135E+00  3.46124648E+00  1.74855165E+00  1.12303135E+00
  3.46124648E+00  1.74855165E+00  1.12303135E+00  3.48202247E+00 -1.73326024E+00
  1.10351578E+00  3.48202247E+00 -1.73326024E+00  1.10351578E+00  3.48202247E+00
 -1.73326024E+00  1.10351578E+00 -3.08990558E+00  2.36351979E+00  3.90215588E+00
 -3.08990558E+00  2.36351979E+00  3.90215588E+00 -3.08990558E+00  2.36351979E+00
  3.90215588E+00 -4.69127330E-01  2.36348834E+00  5.99080012E+00 -4.69127330E-01
  2.36348834E+00  5.99080012E+00 -4.69127330E-01  2.36348834E+00  5.99080012E+00
 -3.05616165E-01  4.04071926E+00  3.08029666E+00 -3.05616165E-01  4.04071926E+00
  3.08029666E+00 -3.05616165E-01  4.04071926E+00  3.08029666E+00
Num ILSW                                   I              100
ILSW                                       I   N=         100
           0           1           0           0           2           0
           0           0           0           0         402          -1
           5           0           0           0           2           0
           0           0           0           0           1           0
           1           1           0           0           0           0
           0           0      100000           0          -1           0
           0           0           0           0           0           0
           0           0           0           1           0           0
           0 -2000000000           1           0           0           0
           0           0           4          52           0           0
           0           0           5           0           0           0
           0           0           0          10           0           1
           0           0           0           0           0           0
           0           0           0           0           0           0
           0           0           0           0           0           0
           0           0           0           0           0           0
           0           0           0           0
Num RLSW                                   I               52
RLSW                                       R   N=          52
  8.00000000E-01  7.20000000E-01  1.00000000E+00  8.10000000E-01  2.00000000E-01
  0.00000000E+00  0.00000000E+00  1.00000000E+00  0.00000000E+00  0.00000000E+00
  0.00000000E+00  0.00000000E+00  1.00000000E+00  0.00000000E+00  0.00000000E+00
  0.00000000E+00  0.00000000E+00  1.00000000E+00  0.00000000E+00  0.00000000E+00
  0.00000000E+00  0.00000000E+00  1.00000000E+00  0.00000000E+00  0.00000000E+00
  0.00000000E+00  0.00000000E+00  1.00000000E+00  0.00000000E+00  0.00000000E+00
  0.00000000E+00  0.00000000E+00  1.00000000E+00  0.00000000E+00  0.00000000E+00
  0.00000000E+00  0.00000000E+00  0.00000000E+00  1.00000000E+00  1.00000000E+00
  0.00000000E+00  1.00000000E+00  0.00000000E+00  0.00000000E+00  0.00000000E+00
  0.00000000E+00  0.00000000E+00  0.00000000E+00  0.00000000E+00  0.00000000E+00
  0.00000000E+00  0.00000000E+00
MxBond                                     I                4
NBond                                      I   N=          10
           2           4           4           4           1           1
           1           1           1           1
IBond                                      I   N=          40
           2           3           0           0           1           3
           4           5           1           2           6           7
           2           8           9          10           2           0
           0           0           3           0           0           0
           3           0           0           0           4           0
           0           0           4           0           0           0
           4           0           0           0
RBond                                      R   N=          40
  1.00000000E+00  1.00000000E+00  0.00000000E+00  0.00000000E+00  1.00000000E+00
  1.00000000E+00  1.00000000E+00  1.00000000E+00  1.00000000E+00  1.00000000E+00
  1.00000000E+00  1.00000000E+00  1.00000000E+00  1.00000000E+00  1.00000000E+00
  1.00000000E+00  1.00000000E+00  0.00000000E+00  0.00000000E+00  0.00000000E+00
  1.00000000E+00  0.00000000E+00  0.00000000E+00  0.00000000E+00  1.00000000E+00
  0.00000000E+00  0.00000000E+00  0.00000000E+00  1.00000000E+00  0.00000000E+00
  0.00000000E+00  0.00000000E+00  1.00000000E+00  0.00000000E+00  0.00000000E+00
  0.00000000E+00  1.00000000E+00  0.00000000E+00  0.00000000E+00  0.00000000E+00
Virial Ratio                               R      2.009611832434501E+00
SCF Energy                                 R     -1.931263983273274E+02
Total Energy                               R     -1.931263983273274E+02
RMS Force                                  R      1.994530757567060E-06
RMS Density                                R      4.131319600826851E-09
NImag                                      I                0
Job Status                                 I                1
Nuclear derivative order                   I                2
External E-field                           R   N=          35
  0.00000000E+00  0.00000000E+00  0.00000000E+00  0.00000000E+00  0.00000000E+00
  0.00000000E+00  0.00000000E+00  0.00000000E+00  0.00000000E+00  0.00000000E+00
  0.00000000E+00  0.00000000E+00  0.00000000E+00  0.00000000E+00  0.00000000E+00
  0.00000000E+00  0.00000000E+00  0.00000000E+00  0.00000000E+00  0.00000000E+00
  0.00000000E+00  0.00000000E+00  0.00000000E+00  0.00000000E+00  0.00000000E+00
  0.00000000E+00  0.00000000E+00  0.00000000E+00  0.00000000E+00  0.00000000E+00
  0.00000000E+00  0.00000000E+00  0.00000000E+00  0.00000000E+00  0.00000000E+00
IOpCl                                      I                0
IROHF                                      I                0
Alpha Orbital Energies                     R   N=         106
 -1.91668437E+01 -1.02507762E+01 -1.02426533E+01 -1.01921112E+01 -1.07392919E+00
 -7.51980968E-01 -6.66638957E-01 -6.01509975E-01 -5.11580163E-01 -4.73206099E-01
 -4.31761708E-01 -4.09315149E-01 -3.81042695E-01 -3.72943493E-01 -3.08603501E-01
 -2.75104391E-01  9.65613864E-03  2.45953829E-02  2.89772551E-02  3.29065655E-02
  5.57698085E-02  6.66672799E-02  7.16885131E-02  7.73745142E-02  1.00949636E-01
  1.11834688E-01  1.21809261E-01  1.27476436E-01  1.56197381E-01  1.80015556E-01
  1.89958396E-01  1.99191146E-01  2.24475049E-01  2.37241196E-01  2.60233678E-01
  2.73033279E-01  2.76121051E-01  2.92964170E-01  3.17074890E-01  3.36511709E-01
  3.61370250E-01  3.73605083E-01  5.79813412E-01  6.09360163E-01  6.32837463E-01
  6.72251882E-01  6.89268120E-01  7.19962566E-01  7.30613884E-01  7.44915766E-01
  8.49271191E-01  9.27781873E-01  9.38742805E-01  9.58799556E-01  9.88452857E-01
  1.03533093E+00  1.06310986E+00  1.08494132E+00  1.17740221E+00  1.20676057E+00
  1.27929733E+00  1.32563343E+00  1.37478282E+00  1.41046574E+00  1.47888853E+00
  1.54758176E+00  1.60196750E+00  1.66103589E+00  1.72409461E+00  1.81415407E+00
  1.83355153E+00  1.89499320E+00  1.96256972E+00  2.03205343E+00  2.04624427E+00
  2.06453655E+00  2.09373004E+00  2.10392006E+00  2.16248396E+00  2.20162267E+00
  2.21571203E+00  2.31897015E+00  2.35472589E+00  2.39182609E+00  2.41160992E+00
  2.50412407E+00  2.58895510E+00  2.66821869E+00  2.70414538E+00  2.73081487E+00
  2.79211322E+00  2.83341034E+00  2.84915579E+00  2.90927348E+00  2.97810845E+00
  3.03911508E+00  3.23526119E+00  3.29714210E+00  3.39921267E+00  3.43846156E+00
  3.44618082E+00  3.53340672E+00  4.19722354E+00  4.35569742E+00  4.50177234E+00
  4.61481278E+00
Alpha MO coefficients                      R   N=       11236
  9.92637724E-01  2.54887137E-02  6.97523495E-04  2.30021197E-06  1.10277766E-03
  1.39359709E-02 -8.48867501E-04  1.26235544E-05 -1.24365544E-03 -8.71973353E-03
  2.24590657E-04 -1.22696462E-04 -5.68376660E-04 -8.61317250E-03 -8.33657719E-03
 -8.75225257E-03 -4.17625428E-06 -1.47598455E-04  2.92122353E-06 -3.82226826E-05
 -2.05577809E-05 -2.65360668E-06  5.82423942E-06 -3.35905133E-04  4.41745868E-04
  1.45114703E-04 -1.68700255E-04 -4.98614133E-04  1.32963103E-02  7.95145500E-04
  2.45996263E-03 -2.00290611E-03 -7.04338403E-05 -5.78770188E-05  4.25255360E-04
  1.55796733E-05  1.07845230E-05 -2.65664883E-06 -4.16470574E-05 -1.74140290E-05
 -3.19904562E-04 -1.78262803E-06 -1.68992642E-04  3.68090007E-04 -1.51371680E-04
  9.00454220E-05 -2.72082738E-04 -3.70315029E-03  2.22947428E-04 -2.64784672E-04
 -7.61189457E-04  2.82741173E-04 -5.66870240E-05  3.40595177E-05  5.71516696E-07
  2.57937064E-04  3.72021166E-06  4.15267492E-07  3.74351822E-05  3.24737260E-05
 -2.60612674E-05  6.71715381E-06  2.34906460E-04 -2.19264726E-04 -1.15732791E-04
 -1.47944568E-04 -5.91246373E-03 -6.94077584E-04  7.99501052E-04  1.26692122E-03
  2.23418598E-05  6.88200928E-06 -5.96986614E-05  1.46594644E-06  1.01226621E-05
 -7.59931620E-06  3.11481856E-05 -5.99503131E-05 -2.50696995E-05 -8.53850855E-06
  4.31858025E-05  2.93316644E-05 -9.43999930E-05  3.73482240E-05  1.20648419E-05
  2.36795149E-06  3.23161152E-05  6.67123766E-05  2.92575773E-05 -1.01410189E-05
  6.15374908E-06 -3.36711207E-05 -2.14200867E-04 -1.30138597E-05 -4.29460151E-06
 -1.63301190E-05  3.09194219E-05 -9.88191641E-06 -1.34048478E-06  5.92637779E-06
 -1.34462818E-05  2.39389996E-06  5.86879174E-05  6.76054311E-06 -2.29054674E-05
 -2.04256595E-05 -1.32646416E-05  1.75108555E-04  9.62372964E-05 -2.66350859E-05
 -4.60951939E-05  9.85654684E-04 -8.56876919E-04  2.72586897E-04  4.34488270E-04
  3.74412733E-03  1.75436731E-04 -3.64764723E-04  2.50850567E-03  1.15812404E-04
  2.35376033E-04 -4.50170854E-04 -3.05621078E-05 -1.41798201E-04  6.18959021E-05
  9.92979425E-01  4.99452770E-02  2.66948178E-04  1.31346807E-04 -1.25422516E-03
 -2.15034855E-02 -1.53915006E-03 -2.21886213E-03  3.04933468E-03  1.05439839E-02
 -5.86817984E-04  3.78998147E-03  1.75012078E-03 -8.63091615E-03 -8.53694171E-03
 -8.44255712E-03  5.46238078E-05 -2.17898172E-04 -6.09814071E-05  1.98295822E-02
  9.49789700E-04  1.19229266E-05 -1.73112796E-05 -1.65345356E-04  4.85065926E-03
 -1.80572455E-03  7.34140559E-04  1.57134805E-03  4.01087996E-05 -9.31802751E-05
 -3.98085213E-04 -6.82773680E-04 -5.38665295E-04 -6.89796823E-05 -3.45366046E-04
 -2.77756254E-05  2.22629932E-04  5.09621827E-05  1.98207461E-03 -2.06718169E-04
 -3.13429640E-05  3.08495360E-05  2.06972180E-05  4.80547291E-03  1.28292182E-03
 -9.73445217E-04 -1.68246256E-03 -1.06341346E-02 -1.24586677E-03  2.33599091E-03
  1.55398907E-03 -1.50186222E-04 -4.31663534E-04 -1.06974853E-04  7.85715934E-05
 -5.84713428E-06 -7.09902410E-05 -1.80042627E-04  1.20599610E-03 -2.34409253E-05
 -1.99232899E-04  1.06995517E-05 -1.88036506E-04 -9.44990037E-04  6.17903248E-05
  7.12916661E-06 -4.29632838E-05 -9.92406951E-05 -3.23803497E-04  5.87263393E-05
 -6.34458367E-06 -5.28499067E-05 -1.58621777E-04  2.10839383E-04  3.37543108E-05
 -4.15937619E-05  5.71454105E-05 -1.33924769E-04  1.44702078E-04 -5.09416121E-05
 -2.65129480E-05 -3.18215602E-06 -2.13967874E-04 -7.99056166E-04  5.25695203E-06
 -3.16437464E-05  5.93792280E-06  3.05890618E-05  3.86192359E-04 -5.21139515E-05
  1.48219466E-06  5.30011949E-05 -3.98674542E-04  3.18994728E-04 -1.07147893E-05
 -7.42268935E-04  3.72712059E-03  3.25721733E-03 -9.67125311E-05  1.08069038E-03
 -1.39946371E-04  3.52533841E-04  9.50775348E-07  8.39122380E-06 -3.65844561E-04
 -5.80684620E-06 -1.99783665E-02 -1.01074848E-03 -2.40132196E-04 -4.02890814E-05
  5.82340490E-06  4.82088716E-03  2.26230333E-03  2.03533141E-04 -1.40463492E-03
  2.19741038E-02  5.03511356E-04  4.25100618E-03 -1.12274170E-03 -2.08142123E-04
  2.21674753E-04  5.94983502E-05 -6.24642983E-06  2.14949298E-04 -1.46323291E-06
  9.92878220E-01  4.98105299E-02 -1.23999602E-03  1.28962235E-05 -4.62142027E-04