R-methyloxirane - 2                                                     
Freq      RB2PLYP-FC                                                  spAug-CC-pVTZ       
Number of atoms                            I               10
Info1-9                                    I   N=           9
          12          10           0           0           0         100
           6           2       -4701
Full Title                                 C   N=           2
R-methyloxirane - 2     
Route                                      C   N=           6
#P B2PLYP/spaug-cc-pVTZ Geom=Check NoSymm Freq=(SaveNM,HPMod
es)         
Charge                                     I                0
Multiplicity                               I                1
Number of electrons                        I               32
Number of alpha electrons                  I               16
Number of beta electrons                   I               16
Number of basis functions                  I              244
Number of independent functions            I              244
Number of point charges in /Mol/           I                0
Number of translation vectors              I                0
Atomic numbers                             I   N=          10
           8           6           6           6           1           1
           1           1           1           1
Nuclear charges                            R   N=          10
  8.00000000E+00  6.00000000E+00  6.00000000E+00  6.00000000E+00  1.00000000E+00
  1.00000000E+00  1.00000000E+00  1.00000000E+00  1.00000000E+00  1.00000000E+00
Current cartesian coordinates              R   N=          30
  1.55936488E+00 -1.49526570E+00 -4.58232957E-01 -2.90168269E-01 -6.60045847E-02
  9.23012533E-01  1.95680107E+00  1.16706228E+00 -1.11785510E-01 -2.84383975E+00
  1.88064189E-01 -2.79223973E-01 -2.86183304E-01 -4.80972710E-01  2.93120426E+00
  1.78117550E+00  2.28977692E+00 -1.81447793E+00  3.51891779E+00  1.65322711E+00
  1.11678789E+00 -3.91380573E+00 -1.55930503E+00 -7.90581047E-02 -3.91525113E+00
  1.70059413E+00  6.20464986E-01 -2.65809764E+00  6.09998982E-01 -2.28329459E+00
Number of symbols in /Mol/                 I                0
Force Field                                I                0
Atom Types                                 C   N=          10
                                                            
                                                            
Int Atom Types                             I   N=          10
           0           0           0           0           0           0
           0           0           0           0
MM charges                                 R   N=          10
  0.00000000E+00  0.00000000E+00  0.00000000E+00  0.00000000E+00  0.00000000E+00
  0.00000000E+00  0.00000000E+00  0.00000000E+00  0.00000000E+00  0.00000000E+00
Integer atomic weights                     I   N=          10
          16          12          12          12           1           1
           1           1           1           1
Real atomic weights                        R   N=          10
  1.59949146E+01  1.20000000E+01  1.20000000E+01  1.20000000E+01  1.00782504E+00
  1.00782504E+00  1.00782504E+00  1.00782504E+00  1.00782504E+00  1.00782504E+00
Atom fragment info                         I   N=          10
           0           0           0           0           0           0
           0           0           0           0
Atom residue num                           I   N=          10
           0           0           0           0           0           0
           0           0           0           0
Nuclear spins                              I   N=          10
           0           0           0           0           1           1
           1           1           1           1
Nuclear ZEff                               R   N=          10
 -5.60000000E+00 -3.60000000E+00 -3.60000000E+00 -3.60000000E+00 -1.00000000E+00
 -1.00000000E+00 -1.00000000E+00 -1.00000000E+00 -1.00000000E+00 -1.00000000E+00
Nuclear ZNuc                               R   N=          10
  8.00000000E+00  6.00000000E+00  6.00000000E+00  6.00000000E+00  1.00000000E+00
  1.00000000E+00  1.00000000E+00  1.00000000E+00  1.00000000E+00  1.00000000E+00
Nuclear QMom                               R   N=          10
  0.00000000E+00  0.00000000E+00  0.00000000E+00  0.00000000E+00  0.00000000E+00
  0.00000000E+00  0.00000000E+00  0.00000000E+00  0.00000000E+00  0.00000000E+00
Nuclear GFac                               R   N=          10
  0.00000000E+00  0.00000000E+00  0.00000000E+00  0.00000000E+00  2.79284600E+00
  2.79284600E+00  2.79284600E+00  2.79284600E+00  2.79284600E+00  2.79284600E+00
MicOpt                                     I   N=          10
          -1          -1          -1          -1          -1          -1
          -1          -1          -1          -1
Number of residues                         I                0
Number of secondary structures             I                0
Redundant internal dimensions              I   N=           4
          39          10          16          13
Redundant internal coordinate indices      I   N=         156
           1           2           0           0           1           3
           0           0           2           3           0           0
           2           4           0           0           2           5
           0           0           3           6           0           0
           3           7           0           0           4           8
           0           0           4           9           0           0
           4          10           0           0           1           2
           4           0           1           2           5           0
           3           2           4           0           3           2
           5           0           4           2           5           0
           1           3           6           0           1           3
           7           0           2           3           6           0
           2           3           7           0           6           3
           7           0           2           4           8           0
           2           4           9           0           2           4
          10           0           8           4           9           0
           8           4          10           0           9           4
          10           0           4           2           3           6
           4           2           3           7           5           2
           3           6           5           2           3           7
           1           2           4           8           1           2
           4           9           1           2           4          10
           3           2           4           8           3           2
           4           9           3           2           4          10
           5           2           4           8           5           2
           4           9           5           2           4          10
Redundant internal coordinates             R   N=          39
  2.71503210E+00  2.71403235E+00  2.76407888E+00  2.83393041E+00  2.05062148E+00
  2.04706961E+00  2.04596126E+00  2.05868715E+00  2.06036633E+00  2.05641147E+00
  2.03222060E+00  1.97182030E+00  2.13377863E+00  2.04353035E+00  2.02121772E+00
  2.00342857E+00  2.00595485E+00  2.07866424E+00  2.09655623E+00  2.02044430E+00
  1.92942549E+00  1.92746318E+00  1.92883248E+00  1.88638022E+00  1.89215037E+00
  1.89852688E+00 -1.01007005E-02  2.67599456E+00 -2.70288711E+00 -1.67918437E-02
  1.33046580E+00 -2.86594465E+00 -7.64391825E-01  2.53416636E+00 -1.66224409E+00
  4.39308735E-01 -1.05092365E+00  1.03585120E+00  3.13740403E+00
ZRed-IntVec                                I   N=          39
           0           0           0           0           0           0
           0           0           0           0           0           0
           0           0           0           0           0           0
           0           0           0           0           0           0
           0           0           0           0           0           0
           0           0           0           0           0           0
           0           0           0
ZRed-FPVec                                 R   N=          39
  0.00000000E+00  0.00000000E+00  0.00000000E+00  0.00000000E+00  0.00000000E+00
  0.00000000E+00  0.00000000E+00  0.00000000E+00  0.00000000E+00  0.00000000E+00
  0.00000000E+00  0.00000000E+00  0.00000000E+00  0.00000000E+00  0.00000000E+00
  0.00000000E+00  0.00000000E+00  0.00000000E+00  0.00000000E+00  0.00000000E+00
  0.00000000E+00  0.00000000E+00  0.00000000E+00  0.00000000E+00  0.00000000E+00
  0.00000000E+00  0.00000000E+00  0.00000000E+00  0.00000000E+00  0.00000000E+00
  0.00000000E+00  0.00000000E+00  0.00000000E+00  0.00000000E+00  0.00000000E+00
  0.00000000E+00  0.00000000E+00  0.00000000E+00  0.00000000E+00
ZRed-Constraint1                           R   N=          39
  2.71503210E+00  2.71403235E+00  2.76407888E+00  2.83393041E+00  2.05062148E+00
  2.04706961E+00  2.04596126E+00  2.05868715E+00  2.06036633E+00  2.05641147E+00
  2.03222060E+00  1.97182030E+00  2.13377863E+00  2.04353035E+00  2.02121772E+00
  2.00342857E+00  2.00595485E+00  2.07866424E+00  2.09655623E+00  2.02044430E+00
  1.92942549E+00  1.92746318E+00  1.92883248E+00  1.88638022E+00  1.89215037E+00
  1.89852688E+00 -1.01007005E-02  2.67599456E+00 -2.70288711E+00 -1.67918437E-02
  1.33046580E+00 -2.86594465E+00 -7.64391825E-01  2.53416636E+00 -1.66224409E+00
  4.39308735E-01 -1.05092365E+00  1.03585120E+00  3.13740403E+00
ZRed-Constraint2                           R   N=          39
  2.70542964E+00  2.70276825E+00  2.76695440E+00  2.83834655E+00  2.05482921E+00
  2.05079831E+00  2.05006234E+00  2.06161311E+00  2.06282106E+00  2.05866997E+00
  2.03900902E+00  1.97380927E+00  2.13953580E+00  2.04239246E+00  2.01490675E+00
  2.00747468E+00  2.00955222E+00  2.08181470E+00  2.09684747E+00  2.01520066E+00
  1.92989274E+00  1.92725040E+00  1.93356484E+00  1.88411037E+00  1.89073128E+00
  1.89700851E+00 -1.18816523E-02  2.66847057E+00 -2.69874739E+00 -1.83951693E-02
  1.33118589E+00 -2.86788827E+00 -7.65284411E-01  2.53571524E+00 -1.66335892E+00
  4.39244940E-01 -1.05403714E+00  1.03007401E+00  3.13267787E+00
SymInf integers                            I   N=          26
           1           1           1           1           1           0
           0           0           0           0           0           0
           0           0           0           0           0           0
           0           0           0           0           0           0
           0           0
RotTr to input orientation                 R   N=          12
  9.99998238E-01 -1.80037828E-03 -5.31205885E-04  1.80355292E-03  9.99980147E-01
  6.03759647E-03  5.20325382E-04 -6.03854389E-03  9.99981632E-01 -1.92397421E-03
 -4.39841342E-04  5.55661247E-04
Number of contracted shells                I               96
Number of primitive shells                 I              160
Pure/Cartesian d shells                    I                0
Pure/Cartesian f shells                    I                0
Highest angular momentum                   I                3
Largest degree of contraction              I                7
Shell types                                I   N=          96
           0           0           0           0           0           1
           1           1           1          -2          -2          -3
           0           0           0           0           0           1
           1           1           1          -2          -2          -3
           0           0           0           0           0           1
           1           1           1          -2          -2          -3
           0           0           0           0           0           1
           1           1           1          -2          -2          -3
           0           0           0           0           1           1
           1          -2           0           0           0           0
           1           1           1          -2           0           0
           0           0           1           1           1          -2
           0           0           0           0           1           1
           1          -2           0           0           0           0
           1           1           1          -2           0           0
           0           0           1           1           1          -2
Number of primitives per shell             I   N=          96
           7           6           1           1           1           3
           1           1           1           1           1           1
           7           6           1           1           1           3
           1           1           1           1           1           1
           7           6           1           1           1           3
           1           1           1           1           1           1
           7           6           1           1           1           3
           1           1           1           1           1           1
           3           1           1           1           1           1
           1           1           3           1           1           1
           1           1           1           1           3           1
           1           1           1           1           1           1
           3           1           1           1           1           1
           1           1           3           1           1           1
           1           1           1           1           3           1
           1           1           1           1           1           1
Shell to atom map                          I   N=          96
           1           1           1           1           1           1
           1           1           1           1           1           1
           2           2           2           2           2           2
           2           2           2           2           2           2
           3           3           3           3           3           3
           3           3           3           3           3           3
           4           4           4           4           4           4
           4           4           4           4           4           4
           5           5           5           5           5           5
           5           5           6           6           6           6
           6           6           6           6           7           7
           7           7           7           7           7           7
           8           8           8           8           8           8
           8           8           9           9           9           9
           9           9           9           9          10          10
          10          10          10          10          10          10
Primitive exponents                        R   N=         160
  1.53300000E+04  2.29900000E+03  5.22400000E+02  1.47300000E+02  4.75500000E+01
  1.67600000E+01  6.20700000E+00  5.22400000E+02  1.47300000E+02  4.75500000E+01
  1.67600000E+01  6.20700000E+00  6.88200000E-01  1.75200000E+00  2.38400000E-01
  7.37600000E-02  3.44600000E+01  7.74900000E+00  2.28000000E+00  7.15600000E-01
  2.14000000E-01  5.97400000E-02  2.31400000E+00  6.45000000E-01  1.42800000E+00
  8.23600000E+03  1.23500000E+03  2.80800000E+02  7.92700000E+01  2.55900000E+01
  8.99700000E+00  3.31900000E+00  2.80800000E+02  7.92700000E+01  2.55900000E+01
  8.99700000E+00  3.31900000E+00  3.64300000E-01  9.05900000E-01  1.28500000E-01
  4.40200000E-02  1.87100000E+01  4.13300000E+00  1.20000000E+00  3.82700000E-01
  1.20900000E-01  3.56900000E-02  1.09700000E+00  3.18000000E-01  7.61000000E-01
  8.23600000E+03  1.23500000E+03  2.80800000E+02  7.92700000E+01  2.55900000E+01
  8.99700000E+00  3.31900000E+00  2.80800000E+02  7.92700000E+01  2.55900000E+01
  8.99700000E+00  3.31900000E+00  3.64300000E-01  9.05900000E-01  1.28500000E-01
  4.40200000E-02  1.87100000E+01  4.13300000E+00  1.20000000E+00  3.82700000E-01
  1.20900000E-01  3.56900000E-02  1.09700000E+00  3.18000000E-01  7.61000000E-01
  8.23600000E+03  1.23500000E+03  2.80800000E+02  7.92700000E+01  2.55900000E+01
  8.99700000E+00  3.31900000E+00  2.80800000E+02  7.92700000E+01  2.55900000E+01
  8.99700000E+00  3.31900000E+00  3.64300000E-01  9.05900000E-01  1.28500000E-01
  4.40200000E-02  1.87100000E+01  4.13300000E+00  1.20000000E+00  3.82700000E-01
  1.20900000E-01  3.56900000E-02  1.09700000E+00  3.18000000E-01  7.61000000E-01
  3.38700000E+01  5.09500000E+00  1.15900000E+00  3.25800000E-01  1.02700000E-01
  2.52600000E-02  1.40700000E+00  3.88000000E-01  1.02000000E-01  1.05700000E+00
  3.38700000E+01  5.09500000E+00  1.15900000E+00  3.25800000E-01  1.02700000E-01
  2.52600000E-02  1.40700000E+00  3.88000000E-01  1.02000000E-01  1.05700000E+00
  3.38700000E+01  5.09500000E+00  1.15900000E+00  3.25800000E-01  1.02700000E-01
  2.52600000E-02  1.40700000E+00  3.88000000E-01  1.02000000E-01  1.05700000E+00
  3.38700000E+01  5.09500000E+00  1.15900000E+00  3.25800000E-01  1.02700000E-01
  2.52600000E-02  1.40700000E+00  3.88000000E-01  1.02000000E-01  1.05700000E+00
  3.38700000E+01  5.09500000E+00  1.15900000E+00  3.25800000E-01  1.02700000E-01
  2.52600000E-02  1.40700000E+00  3.88000000E-01  1.02000000E-01  1.05700000E+00
  3.38700000E+01  5.09500000E+00  1.15900000E+00  3.25800000E-01  1.02700000E-01
  2.52600000E-02  1.40700000E+00  3.88000000E-01  1.02000000E-01  1.05700000E+00
Contraction coefficients                   R   N=         160
  5.19808943E-04  4.02025621E-03  2.07128267E-02  8.10105536E-02  2.35962985E-01
  4.42653446E-01  3.57064423E-01 -4.42115008E-05 -1.22591041E-03 -1.05517725E-02
 -6.74452633E-02 -1.71198607E-01  1.07329856E+00  1.00000000E+00  1.00000000E+00
  1.00000000E+00  4.11634896E-02  2.57762836E-01  8.02419274E-01  1.00000000E+00
  1.00000000E+00  1.00000000E+00  1.00000000E+00  1.00000000E+00  1.00000000E+00
  5.41978320E-04  4.19287382E-03  2.15221621E-02  8.35343220E-02  2.39582846E-01
  4.42852842E-01  3.51799562E-01 -5.94922494E-05 -1.14815831E-03 -1.00191374E-02
 -6.12194923E-02 -1.73269854E-01  1.07291519E+00  1.00000000E+00  1.00000000E+00
  1.00000000E+00  3.94263872E-02  2.44088985E-01  8.15492009E-01  1.00000000E+00
  1.00000000E+00  1.00000000E+00  1.00000000E+00  1.00000000E+00  1.00000000E+00
  5.41978320E-04  4.19287382E-03  2.15221621E-02  8.35343220E-02  2.39582846E-01
  4.42852842E-01  3.51799562E-01 -5.94922494E-05 -1.14815831E-03 -1.00191374E-02
 -6.12194923E-02 -1.73269854E-01  1.07291519E+00  1.00000000E+00  1.00000000E+00
  1.00000000E+00  3.94263872E-02  2.44088985E-01  8.15492009E-01  1.00000000E+00
  1.00000000E+00  1.00000000E+00  1.00000000E+00  1.00000000E+00  1.00000000E+00
  5.41978320E-04  4.19287382E-03  2.15221621E-02  8.35343220E-02  2.39582846E-01
  4.42852842E-01  3.51799562E-01 -5.94922494E-05 -1.14815831E-03 -1.00191374E-02
 -6.12194923E-02 -1.73269854E-01  1.07291519E+00  1.00000000E+00  1.00000000E+00
  1.00000000E+00  3.94263872E-02  2.44088985E-01  8.15492009E-01  1.00000000E+00
  1.00000000E+00  1.00000000E+00  1.00000000E+00  1.00000000E+00  1.00000000E+00
  2.54948632E-02  1.90362766E-01  8.52162022E-01  1.00000000E+00  1.00000000E+00
  1.00000000E+00  1.00000000E+00  1.00000000E+00  1.00000000E+00  1.00000000E+00
  2.54948632E-02  1.90362766E-01  8.52162022E-01  1.00000000E+00  1.00000000E+00
  1.00000000E+00  1.00000000E+00  1.00000000E+00  1.00000000E+00  1.00000000E+00
  2.54948632E-02  1.90362766E-01  8.52162022E-01  1.00000000E+00  1.00000000E+00
  1.00000000E+00  1.00000000E+00  1.00000000E+00  1.00000000E+00  1.00000000E+00
  2.54948632E-02  1.90362766E-01  8.52162022E-01  1.00000000E+00  1.00000000E+00
  1.00000000E+00  1.00000000E+00  1.00000000E+00  1.00000000E+00  1.00000000E+00
  2.54948632E-02  1.90362766E-01  8.52162022E-01  1.00000000E+00  1.00000000E+00
  1.00000000E+00  1.00000000E+00  1.00000000E+00  1.00000000E+00  1.00000000E+00
  2.54948632E-02  1.90362766E-01  8.52162022E-01  1.00000000E+00  1.00000000E+00
  1.00000000E+00  1.00000000E+00  1.00000000E+00  1.00000000E+00  1.00000000E+00
Coordinates of each shell                  R   N=         288
  1.55936488E+00 -1.49526570E+00 -4.58232957E-01  1.55936488E+00 -1.49526570E+00
 -4.58232957E-01  1.55936488E+00 -1.49526570E+00 -4.58232957E-01  1.55936488E+00
 -1.49526570E+00 -4.58232957E-01  1.55936488E+00 -1.49526570E+00 -4.58232957E-01
  1.55936488E+00 -1.49526570E+00 -4.58232957E-01  1.55936488E+00 -1.49526570E+00
 -4.58232957E-01  1.55936488E+00 -1.49526570E+00 -4.58232957E-01  1.55936488E+00
 -1.49526570E+00 -4.58232957E-01  1.55936488E+00 -1.49526570E+00 -4.58232957E-01
  1.55936488E+00 -1.49526570E+00 -4.58232957E-01  1.55936488E+00 -1.49526570E+00
 -4.58232957E-01 -2.90168269E-01 -6.60045847E-02  9.23012533E-01 -2.90168269E-01
 -6.60045847E-02  9.23012533E-01 -2.90168269E-01 -6.60045847E-02  9.23012533E-01
 -2.90168269E-01 -6.60045847E-02  9.23012533E-01 -2.90168269E-01 -6.60045847E-02
  9.23012533E-01 -2.90168269E-01 -6.60045847E-02  9.23012533E-01 -2.90168269E-01
 -6.60045847E-02  9.23012533E-01 -2.90168269E-01 -6.60045847E-02  9.23012533E-01
 -2.90168269E-01 -6.60045847E-02  9.23012533E-01 -2.90168269E-01 -6.60045847E-02
  9.23012533E-01 -2.90168269E-01 -6.60045847E-02  9.23012533E-01 -2.90168269E-01
 -6.60045847E-02  9.23012533E-01  1.95680107E+00  1.16706228E+00 -1.11785510E-01
  1.95680107E+00  1.16706228E+00 -1.11785510E-01  1.95680107E+00  1.16706228E+00
 -1.11785510E-01  1.95680107E+00  1.16706228E+00 -1.11785510E-01  1.95680107E+00
  1.16706228E+00 -1.11785510E-01  1.95680107E+00  1.16706228E+00 -1.11785510E-01
  1.95680107E+00  1.16706228E+00 -1.11785510E-01  1.95680107E+00  1.16706228E+00
 -1.11785510E-01  1.95680107E+00  1.16706228E+00 -1.11785510E-01  1.95680107E+00
  1.16706228E+00 -1.11785510E-01  1.95680107E+00  1.16706228E+00 -1.11785510E-01
  1.95680107E+00  1.16706228E+00 -1.11785510E-01 -2.84383975E+00  1.88064189E-01
 -2.79223973E-01 -2.84383975E+00  1.88064189E-01 -2.79223973E-01 -2.84383975E+00
  1.88064189E-01 -2.79223973E-01 -2.84383975E+00  1.88064189E-01 -2.79223973E-01
 -2.84383975E+00  1.88064189E-01 -2.79223973E-01 -2.84383975E+00  1.88064189E-01
 -2.79223973E-01 -2.84383975E+00  1.88064189E-01 -2.79223973E-01 -2.84383975E+00
  1.88064189E-01 -2.79223973E-01 -2.84383975E+00  1.88064189E-01 -2.79223973E-01
 -2.84383975E+00  1.88064189E-01 -2.79223973E-01 -2.84383975E+00  1.88064189E-01
 -2.79223973E-01 -2.84383975E+00  1.88064189E-01 -2.79223973E-01 -2.86183304E-01
 -4.80972710E-01  2.93120426E+00 -2.86183304E-01 -4.80972710E-01  2.93120426E+00
 -2.86183304E-01 -4.80972710E-01  2.93120426E+00 -2.86183304E-01 -4.80972710E-01
  2.93120426E+00 -2.86183304E-01 -4.80972710E-01  2.93120426E+00 -2.86183304E-01
 -4.80972710E-01  2.93120426E+00 -2.86183304E-01 -4.80972710E-01  2.93120426E+00
 -2.86183304E-01 -4.80972710E-01  2.93120426E+00  1.78117550E+00  2.28977692E+00
 -1.81447793E+00  1.78117550E+00  2.28977692E+00 -1.81447793E+00  1.78117550E+00
  2.28977692E+00 -1.81447793E+00  1.78117550E+00  2.28977692E+00 -1.81447793E+00
  1.78117550E+00  2.28977692E+00 -1.81447793E+00  1.78117550E+00  2.28977692E+00
 -1.81447793E+00  1.78117550E+00  2.28977692E+00 -1.81447793E+00  1.78117550E+00
  2.28977692E+00 -1.81447793E+00  3.51891779E+00  1.65322711E+00  1.11678789E+00
  3.51891779E+00  1.65322711E+00  1.11678789E+00  3.51891779E+00  1.65322711E+00
  1.11678789E+00  3.51891779E+00  1.65322711E+00  1.11678789E+00  3.51891779E+00
  1.65322711E+00  1.11678789E+00  3.51891779E+00  1.65322711E+00  1.11678789E+00
  3.51891779E+00  1.65322711E+00  1.11678789E+00  3.51891779E+00  1.65322711E+00
  1.11678789E+00 -3.91380573E+00 -1.55930503E+00 -7.90581047E-02 -3.91380573E+00
 -1.55930503E+00 -7.90581047E-02 -3.91380573E+00 -1.55930503E+00 -7.90581047E-02
 -3.91380573E+00 -1.55930503E+00 -7.90581047E-02 -3.91380573E+00 -1.55930503E+00
 -7.90581047E-02 -3.91380573E+00 -1.55930503E+00 -7.90581047E-02 -3.91380573E+00
 -1.55930503E+00 -7.90581047E-02 -3.91380573E+00 -1.55930503E+00 -7.90581047E-02
 -3.91525113E+00  1.70059413E+00  6.20464986E-01 -3.91525113E+00  1.70059413E+00
  6.20464986E-01 -3.91525113E+00  1.70059413E+00  6.20464986E-01 -3.91525113E+00
  1.70059413E+00  6.20464986E-01 -3.91525113E+00  1.70059413E+00  6.20464986E-01
 -3.91525113E+00  1.70059413E+00  6.20464986E-01 -3.91525113E+00  1.70059413E+00
  6.20464986E-01 -3.91525113E+00  1.70059413E+00  6.20464986E-01 -2.65809764E+00
  6.09998982E-01 -2.28329459E+00 -2.65809764E+00  6.09998982E-01 -2.28329459E+00
 -2.65809764E+00  6.09998982E-01 -2.28329459E+00 -2.65809764E+00  6.09998982E-01
 -2.28329459E+00 -2.65809764E+00  6.09998982E-01 -2.28329459E+00 -2.65809764E+00
  6.09998982E-01 -2.28329459E+00 -2.65809764E+00  6.09998982E-01 -2.28329459E+00
 -2.65809764E+00  6.09998982E-01 -2.28329459E+00
Num ILSW                                   I              100
ILSW                                       I   N=         100
           0           0           0           0           2           0
           0           0           0           0         419          -1
           5           0           0           0           2           0
           0           0           0           0           1           0
           1           1           0           0           0           0
           0           0      100000           0          -1           0
           0           0           0           0           0           0
           0           0           0           1           1           0
           0 -2000000000           1           0           0           0
           0           0           4          52           0           0
           0           0          47           0           0           0
           0           0           0          10           4           1
           0           0           0           0           0           0
           0           0           0           0           0           0
           0           0           0           0           0           0
           0           0           0           0           0           0
           0           0           0           0
Num RLSW                                   I               52
RLSW                                       R   N=          52
  4.70000000E-01  4.70000000E-01  7.30000000E-01  7.30000000E-01  5.30000000E-01
  0.00000000E+00  0.00000000E+00  1.00000000E+00  0.00000000E+00  0.00000000E+00
  0.00000000E+00  0.00000000E+00  1.00000000E+00  0.00000000E+00  0.00000000E+00
  0.00000000E+00  0.00000000E+00  1.00000000E+00  0.00000000E+00  0.00000000E+00
  0.00000000E+00  0.00000000E+00  1.00000000E+00  0.00000000E+00  0.00000000E+00
  0.00000000E+00  0.00000000E+00  1.00000000E+00  0.00000000E+00  0.00000000E+00
  0.00000000E+00  0.00000000E+00  1.00000000E+00  0.00000000E+00  0.00000000E+00
  0.00000000E+00  0.00000000E+00  0.00000000E+00  2.70000000E-01  2.70000000E-01
  0.00000000E+00  1.00000000E+00  0.00000000E+00  0.00000000E+00  0.00000000E+00
  0.00000000E+00  0.00000000E+00  0.00000000E+00  0.00000000E+00  0.00000000E+00
  0.00000000E+00  0.00000000E+00
MxBond                                     I                4
NBond                                      I   N=          10
           2           4           4           4           1           1
           1           1           1           1
IBond                                      I   N=          40
           2           3           0           0           1           3
           4           5           1           2           6           7
           2           8           9          10           2           0
           0           0           3           0           0           0
           3           0           0           0           4           0
           0           0           4           0           0           0
           4           0           0           0
RBond                                      R   N=          40
  1.00000000E+00  1.00000000E+00  0.00000000E+00  0.00000000E+00  1.00000000E+00
  1.00000000E+00  1.00000000E+00  1.00000000E+00  1.00000000E+00  1.00000000E+00
  1.00000000E+00  1.00000000E+00  1.00000000E+00  1.00000000E+00  1.00000000E+00
  1.00000000E+00  1.00000000E+00  0.00000000E+00  0.00000000E+00  0.00000000E+00
  1.00000000E+00  0.00000000E+00  0.00000000E+00  0.00000000E+00  1.00000000E+00
  0.00000000E+00  0.00000000E+00  0.00000000E+00  1.00000000E+00  0.00000000E+00
  0.00000000E+00  0.00000000E+00  1.00000000E+00  0.00000000E+00  0.00000000E+00
  0.00000000E+00  1.00000000E+00  0.00000000E+00  0.00000000E+00  0.00000000E+00
Virial Ratio                               R      2.004614847310301E+00
SCF Energy                                 R     -1.927754880773013E+02
MP2 Energy                                 R     -1.930210630429762E+02
Total Energy                               R     -1.930210630429762E+02
Post-SCF wavefunction norm                 R      1.632761525911637E+00
RMS Force                                  R      1.784887895198098E-06
RMS Density                                R      6.934625855326365E-09
NImag                                      I                0
Job Status                                 I                1
Nuclear derivative order                   I                2
External E-field                           R   N=          35
  0.00000000E+00  0.00000000E+00  0.00000000E+00  0.00000000E+00  0.00000000E+00
  0.00000000E+00  0.00000000E+00  0.00000000E+00  0.00000000E+00  0.00000000E+00
  0.00000000E+00  0.00000000E+00  0.00000000E+00  0.00000000E+00  0.00000000E+00